# vtk DataFile Version 5.1
vtk output
ASCII
DATASET POLYDATA
POINTS 192 float
122.477 83.8819 134.494 123.508 83.2389 134.33 123.269 83.8629 135.028 
107.66 76.6354 129.793 108.261 76.1093 129.318 108.694 76.998 130.038 
108.211 77.4685 130.592 114.75 77.85 128.751 114.25 77.1 128.754 
115.5 77.35 128.751 114.955 76.4027 128.85 110.265 81.0021 130.699 
111.342 80.4901 130.035 111 81.5651 130.91 114.731 81.9992 131.371 
115.977 82.569 131.778 115.073 83.0892 132.078 116.011 83.338 132.487 
111.856 78.3216 128.948 111.362 78.8539 129.46 111.204 77.7996 129.501 
115.574 75.2138 129.7 114.821 75.6807 129.502 114.214 74.8679 129.735 
115.5 81.5929 130.932 114 81.5934 130.932 114.761 81.0065 130.595 
115.5 78.3917 128.755 111.807 81.9628 131.324 112.5 81.5936 130.931 
112.5 82.7784 131.549 113.267 82.0277 131.391 110.607 80.0393 129.855 
119.937 82.6632 132.021 120.417 83.6543 133.185 119.212 83.583 132.707 
120.721 82.6771 132.557 113.539 79.1882 128.928 112.517 79.1955 128.992 
112.958 78.35 128.766 113.723 79.8053 129.582 121.21 81.6918 131.029 
120.928 80.9663 130.507 121.872 81.047 130.684 109.885 77.8084 129.912 
110.452 78.6263 129.766 109.906 79.3404 129.952 116.297 74.6938 129.73 
116.027 75.9646 129.152 117.051 75.4899 129.458 114 78.35 128.755 
113.5 77.6 128.752 116.981 76.2873 128.843 117 77.35 128.751 
116.208 76.8292 128.761 120.476 73.8841 130.35 121.042 74.687 130.293 
119.781 74.8979 129.756 119.813 73.8676 129.918 121.216 83.204 133.25 
109.455 81.3458 131.268 108.824 80.3515 130.819 109.746 80.3479 130.31 
118.25 78.6 128.767 117 78.3917 128.755 117.75 77.85 128.751 
113.75 76.2535 128.876 113.595 75.6632 129.458 109.198 78.0595 130.466 
117.75 76.8083 128.758 117.478 80.0515 129.72 116.639 79.6514 129.444 
117.5 79.1909 128.917 119 78.1 128.752 118.5 77.35 128.751 
122.02 83.5892 133.828 121.242 84.0368 133.92 122.75 77.4403 128.889 
122.788 76.9039 129.469 124.222 77.3437 129.001 123.5 78.0464 128.771 
113 76.85 128.761 118.333 80.5419 129.925 118.255 81.3889 130.619 
117.461 80.8529 130.407 119.413 80.0697 129.697 119.019 81.3349 130.274 
119.022 82.8644 131.998 118.032 83.2798 132.471 118.011 82.6061 131.799 
118.924 82.018 131.373 113.246 83.0859 131.022 118.595 76.1705 128.869 
123.918 80.9054 130.396 124.454 81.749 130.819 123.547 81.6358 131.391 
117.78 75.7948 128.951 122.017 81.7676 131.484 122.8 81.1292 131.04 
122.819 81.8012 131.926 123.067 80.6207 130.145 107.357 77.9509 130.647 
122.128 74.9971 130.699 123.138 74.5501 131.253 122.955 75.5042 130.597 
123.413 76.3532 129.826 122.083 76.2188 129.888 121.364 79.7547 129.199 
122.664 79.8075 129.256 122.095 80.4857 129.717 120.167 79.6561 129.436 
120.811 80.3622 129.798 116.3 78.9689 128.83 115.5 79.359 129.031 
124.289 82.1432 131.952 123.765 79.8718 129.463 123.529 79.2171 128.879 
118.307 79.6045 129.419 119.989 76.2102 129.149 119.25 76.7964 128.789 
118.962 75.5036 129.454 109.143 79.1238 130.533 117.983 75.0353 129.395 
115.202 79.8009 129.594 108.202 78.6395 130.729 115.75 80.4991 130.03 
108.714 80.9321 131.46 107.507 80.2048 131.133 108.274 79.6024 130.764 
112.514 76.0289 128.757 116.25 77.85 128.751 121.25 78.6 128.762 
122.05 79.2333 128.822 120.438 79.1943 128.889 118.994 74.3437 129.74 
112.863 80.3549 129.9 112.019 79.665 129.558 116.25 81.0597 130.641 
116.224 81.9132 131.278 117.026 74.1658 129.73 118.182 73.9354 129.741 
121.332 75.7591 129.923 121.276 76.8169 129.432 120.46 75.4606 129.745 
120.587 76.9968 129.001 119.75 77.5583 128.762 112.367 77.55 128.806 
109.65 76.6696 129.756 117.055 81.5477 130.876 111.705 76.6198 128.636 
117 82.3164 131.669 121.333 77.4982 128.851 111.807 81.0151 130.6 
113.277 80.9706 130.572 107.489 79.134 130.743 114.632 79.0606 128.877 
110.45 77.1218 129.73 111.233 76.7351 129.411 117.821 81.9109 131.248 
109.304 76.119 129.205 116.759 80.5412 130.03 119.036 79.2486 128.956 
110.681 76.5385 128.753 122 78.0464 128.77 120.5 78.1 128.757 
108.004 81.3749 131.752 107.189 80.8413 131.756 114.164 83.0865 131.547 
117 83.1479 132.276 110.155 81.9061 131.353 111.083 82.4385 131.608 
108.655 82.1191 131.703 122.83 83.0815 133.571 123.949 82.4564 133.161 
124.495 83.3292 134.106 114.442 80.4154 129.934 119.805 80.8985 130.234 
124.7 82.7667 132.978 123.088 82.3516 132.758 119.764 81.7118 130.922 
121.171 82.0194 132.084 121.971 82.1125 132.521 121.981 82.8045 132.93 
120.457 81.9621 131.464 119.75 78.6536 128.781 122.75 78.6 128.762 
121.717 74.071 130.818 123.281 73.3344 131.72 122.469 73.8436 131.35 
124.402 83.8306 135.191 124.521 84.3935 136.339 123.699 84.16 135.828 

POLYGONS 327 978
OFFSETS vtktypeint64
0 3 6 9 12 15 18 21 24 
27 30 33 36 39 42 45 48 51 
54 57 60 63 66 69 72 75 78 
81 84 87 90 93 96 99 102 105 
108 111 114 117 120 123 126 129 132 
135 138 141 144 147 150 153 156 159 
162 165 168 171 174 177 180 183 186 
189 192 195 198 201 204 207 210 213 
216 219 222 225 228 231 234 237 240 
243 246 249 252 255 258 261 264 267 
270 273 276 279 282 285 288 291 294 
297 300 303 306 309 312 315 318 321 
324 327 330 333 336 339 342 345 348 
351 354 357 360 363 366 369 372 375 
378 381 384 387 390 393 396 399 402 
405 408 411 414 417 420 423 426 429 
432 435 438 441 444 447 450 453 456 
459 462 465 468 471 474 477 480 483 
486 489 492 495 498 501 504 507 510 
513 516 519 522 525 528 531 534 537 
540 543 546 549 552 555 558 561 564 
567 570 573 576 579 582 585 588 591 
594 597 600 603 606 609 612 615 618 
621 624 627 630 633 636 639 642 645 
648 651 654 657 660 663 666 669 672 
675 678 681 684 687 690 693 696 699 
702 705 708 711 714 717 720 723 726 
729 732 735 738 741 744 747 750 753 
756 759 762 765 768 771 774 777 780 
783 786 789 792 795 798 801 804 807 
810 813 816 819 822 825 828 831 834 
837 840 843 846 849 852 855 858 861 
864 867 870 873 876 879 882 885 888 
891 894 897 900 903 906 909 912 915 
918 921 924 927 930 933 936 939 942 
945 948 951 954 957 960 963 966 969 
972 975 978 
CONNECTIVITY vtktypeint64
0 2 1 3 5 4 6 5 3 
7 9 8 8 9 10 11 13 12 
14 16 15 16 17 15 18 20 19 
21 23 22 14 15 24 25 14 26 
26 14 24 27 9 7 28 30 29 
29 30 31 11 12 32 33 35 34 
34 36 33 37 39 38 38 40 37 
41 43 42 44 46 45 47 21 48 
48 49 47 50 7 51 52 54 53 
55 57 56 58 57 55 34 59 36 
60 62 61 63 65 64 66 22 67 
45 46 32 6 68 5 22 10 48 
52 48 54 53 69 52 70 72 71 
73 74 65 75 59 76 11 62 60 
77 79 78 80 79 77 51 8 81 
82 84 83 81 8 66 82 86 85 
87 89 88 90 89 87 30 91 31 
92 69 74 93 95 94 96 49 52 
97 99 98 98 99 95 100 43 98 
101 6 3 102 104 103 41 97 43 
105 104 106 107 109 108 110 111 107 
27 113 112 99 114 95 115 116 108 
117 72 70 110 85 111 118 92 119 
118 120 92 68 121 46 120 122 96 
122 49 96 50 39 37 113 123 71 
68 6 124 26 24 125 126 61 127 
61 128 127 67 129 66 54 130 53 
131 107 132 133 107 131 22 48 21 
122 120 134 9 130 54 38 135 40 
136 135 38 9 27 130 137 24 138 
49 122 139 122 140 139 69 96 52 
141 143 142 143 118 142 118 119 144 
144 119 145 78 79 105 51 146 39 
5 44 147 5 68 44 148 84 137 
149 146 81 138 148 137 138 150 148 
142 151 77 77 78 142 50 51 39 
152 29 153 153 29 31 65 63 73 
57 120 118 65 53 64 63 64 72 
25 153 31 129 149 81 74 119 92 
124 154 128 128 154 127 126 60 61 
64 53 130 69 53 65 74 69 65 
12 13 152 7 155 27 10 54 48 
9 54 10 156 20 157 51 81 146 
7 8 51 134 140 122 20 156 44 
113 71 112 154 124 101 7 50 155 
83 158 90 4 5 159 139 47 49 
118 143 57 120 57 134 147 159 5 
71 125 160 160 125 137 23 67 22 
44 156 147 68 46 44 85 161 117 
12 135 136 135 12 152 20 18 146 
98 95 93 39 146 18 46 121 62 
19 45 32 66 8 10 81 66 129 
6 101 124 15 150 138 10 22 66 
45 20 44 68 124 121 157 149 162 
149 157 20 63 72 117 24 15 138 
19 20 45 69 92 96 120 96 92 
52 49 48 151 131 163 141 106 102 
145 164 144 130 112 64 130 27 112 
20 146 149 18 38 39 18 19 38 
127 166 165 165 126 127 24 137 125 
109 42 43 111 42 109 148 158 83 
83 84 148 62 121 61 152 28 29 
121 128 61 14 167 16 153 135 152 
70 71 160 117 161 63 63 161 73 
160 137 84 70 82 117 70 84 82 
89 150 168 28 152 13 31 14 25 
167 14 31 26 153 25 148 150 158 
131 132 163 124 128 121 169 11 60 
13 11 169 169 170 13 13 170 28 
171 126 165 60 126 171 171 169 60 
71 72 112 112 72 64 123 125 71 
15 168 150 15 17 168 91 167 31 
89 90 158 158 150 89 168 88 89 
1 173 172 174 173 1 28 170 30 
88 35 87 155 40 123 11 32 62 
155 113 27 155 123 113 135 153 175 
26 125 175 155 50 37 123 40 175 
32 46 62 175 153 26 136 32 12 
19 32 136 38 19 136 135 175 40 
37 40 155 175 125 123 160 84 70 
86 82 83 109 43 100 85 86 176 
85 117 82 133 110 107 177 114 173 
95 114 94 178 173 114 86 83 90 
111 176 42 164 131 151 78 106 142 
107 111 109 111 85 176 110 161 85 
179 86 90 176 86 179 180 97 41 
42 176 179 180 36 181 181 36 182 
118 144 142 97 98 43 99 178 114 
179 41 42 179 183 41 180 41 183 
115 108 100 100 98 93 73 161 184 
77 163 185 109 100 108 56 186 55 
182 36 59 187 188 103 35 33 87 
75 76 0 1 2 189 189 174 1 
177 173 174 107 108 132 172 173 178 
106 141 142 189 191 190 102 103 188 
189 2 191 59 34 76 181 178 99 
182 178 181 59 75 182 97 180 181 
183 179 33 179 90 33 33 90 87 
180 183 36 183 33 36 104 102 106 
99 97 181 75 172 182 75 0 172 
172 0 1 182 172 178 93 115 100 
77 151 163 119 74 145 145 74 73 
164 133 131 184 133 164 184 110 133 
164 151 144 56 141 102 56 143 141 
143 56 57 106 78 105 57 58 134 
102 186 56 188 186 102 108 116 185 
144 151 142 185 116 80 184 161 110 
108 185 132 185 163 132 185 80 77 
73 184 145 184 164 145 
CELL_DATA 326
SCALARS labels int
LOOKUP_TABLE default
0 0 0 0 0 0 0 0 0 
0 0 0 0 0 0 0 0 0 
0 0 0 0 0 0 0 0 0 
0 0 0 0 0 0 0 0 0 
0 0 0 0 0 0 0 0 0 
0 0 0 0 0 0 0 0 0 
0 0 0 0 0 0 0 0 0 
0 0 0 0 0 0 0 0 0 
0 0 0 0 0 0 0 0 0 
0 0 0 0 0 0 0 0 0 
0 0 0 0 0 0 0 0 0 
0 0 0 0 0 0 0 0 0 
0 0 0 0 0 0 0 0 0 
0 0 0 0 0 0 0 0 0 
0 0 0 0 0 0 0 0 0 
0 0 0 0 0 0 0 0 0 
0 0 0 0 0 0 0 0 0 
0 0 0 0 0 0 0 0 0 
0 0 0 0 0 0 0 0 0 
0 0 0 0 0 0 0 0 0 
0 0 0 0 0 0 0 0 0 
0 0 0 0 0 0 0 0 0 
0 0 0 0 0 0 0 0 0 
0 0 0 0 0 0 0 0 0 
0 0 0 0 0 0 0 0 0 
0 0 0 0 0 0 0 0 0 
0 0 0 0 0 0 0 0 0 
0 0 0 0 0 0 0 0 0 
0 0 0 0 0 0 0 0 0 
0 0 0 0 0 0 0 0 0 
0 0 0 0 0 0 0 0 0 
0 0 0 0 0 0 0 0 0 
0 0 0 0 0 0 0 0 0 
0 0 0 0 0 0 0 0 0 
0 0 0 0 0 0 0 0 0 
0 0 0 0 0 0 0 0 0 
0 0 
POINT_DATA 192
SCALARS weights float
LOOKUP_TABLE default
1 1 1 1 1 1 1 1 1 
1 1 1 1 1 1 1 1 1 
1 1 1 1 1 1 1 1 1 
1 1 1 1 1 1 1 1 1 
1 1 1 1 1 1 1 1 1 
1 1 1 1 1 1 1 1 1 
1 1 1 1 1 1 1 1 1 
1 1 1 1 1 1 1 1 1 
1 1 1 1 1 1 1 1 1 
1 1 1 1 1 1 1 1 1 
1 1 1 1 1 1 1 1 1 
1 1 1 1 1 1 1 1 1 
1 1 1 1 1 1 1 1 1 
1 1 1 1 1 1 1 1 1 
1 1 1 1 1 1 1 1 1 
1 1 1 1 1 1 1 1 1 
1 1 1 1 1 1 1 1 1 
1 1 1 1 1 1 1 1 1 
1 1 1 1 1 1 1 1 1 
1 1 1 1 1 1 1 1 1 
1 1 1 1 1 1 1 1 1 
1 1 1 
FIELD FieldData 1
displacement 1 192 float
2.53298 2.40519 2.27144 1.70831 1.71999 1.57845 1.67243 2.12589 1.95122 
2.09925 1.90143 1.56861 1.81466 1.49138 1.84552 1.89994 1.34045 1.13352 
1.856 1.95039 1.57023 1.65815 1.59323 1.13983 2.20906 1.8664 2.15301 
2.2184 1.49469 1.69319 1.35263 1.59449 1.88347 2.66297 2.18199 2.06005 
2.50589 2.21491 2.10979 2.08598 2.13886 2.71169 2.52032 2.63038 1.61745 
1.79925 1.71794 1.73871 1.96598 1.91448 2.16332 1.96114 2.13975 2.12584 
2.11303 1.74309 2.21872 2.17537 1.81061 2.39308 1.43455 1.63522 1.66388 
2.25064 2.20899 2.14848 1.47655 1.15513 1.65206 2.14342 2.37878 2.29807 
2.28378 2.18344 2.14104 2.51318 1.98543 3.51837 3.83859 1.86732 3.36698 
1.59842 2.39063 2.51846 2.44547 2.33283 2.58305 2.57408 1.76772 2.4169 
2.44857 1.16167 2.29969 2.53988 2.12182 3.14856 2.22918 2.85791 3.23862 
2.95899 3.78335 1.69027 2.72183 2.68867 2.81364 3.19524 2.89482 2.17553 
3.36712 2.42016 2.2267 2.33189 2.31361 2.27779 2.59533 2.65126 3.05862 
2.30695 2.30512 2.25961 2.05169 1.76349 2.11674 2.26294 1.72733 2.39155 
1.53963 1.53145 1.73989 1.03922 2.15379 2.2601 2.39008 2.20083 1.91166 
2.00881 2.06699 2.37826 2.24962 1.79922 1.88797 2.50968 2.2836 2.31048 
2.36894 2.20315 1.74486 1.42948 2.50602 1.18644 2.22081 2.2508 1.72719 
1.92922 1.70668 2.26669 1.34729 1.05392 2.46273 1.68403 2.44688 2.25767 
0.76626 2.33057 2.22115 1.35565 1.34297 1.33557 1.63459 1.31523 1.19129 
1.17427 2.93182 2.78092 2.39836 2.21846 2.52734 2.19609 3.04816 2.58674 
2.56856 2.58601 2.64093 2.61979 2.22429 2.58095 2.2141 1.96087 2.47903 
2.40655 2.23204 2.22553 
